LAMMPS data file via write_data, version 2 Apr 2025, timestep = 20001, units = metal

6912 atoms
1 atom types

0 43.38 xlo xhi
0 43.38 ylo yhi
0 43.38 zlo zhi

Masses

1 63.546

Atoms # atomic

11 1 9.067605776368246 0.001772672253665064 1.851807593877174 0 0 0
8 1 3.634130976370501 1.8187797881605756 1.7779937108727528 0 0 0
37 1 10.864666420311982 3.6391538807893373 0.07034259150814907 0 0 0
12 1 7.269046490718353 1.8222319333530685 1.7837932029649926 0 0 0
15 1 12.64004708811902 0.0692815897803373 1.8507464780960179 0 0 0
76 1 0.027434966103523768 1.8320521482601522 5.462667924416937 0 0 0
16 1 10.880927803365823 1.8142969250644705 1.8550054305260912 0 0 0
69 1 18.087220772479206 7.251579198313797 0.014851081905301123 0 0 0
20 1 14.504044037149114 1.8574383038238758 1.797937765099031 0 0 0
17 1 14.485466363060688 0.03664860095579968 0.046900518804258606 0 0 0
3 1 1.7992961798529632 0.04393958743654882 1.7296630567411653 0 0 0
24 1 18.05253625582414 1.8321866822618658 1.806951122217811 0 0 0
27 1 1.7386484193215541 3.611154305512031 1.8371185524093259 0 0 0
93 1 18.0626734527233 0.005095167467527409 3.6223578531437313 0 0 0
31 1 5.463364941079288 3.6489556957443647 1.7411154270951879 0 0 0
83 1 9.011560948626874 0.020913632952049416 5.434624303840687 0 0 0
36 1 7.225624521629217 5.407858772723963 1.7775161907178163 0 0 0
35 1 9.05250483899573 3.6459118429212607 1.8185206094091364 0 0 0
52 1 0.031711028981703256 9.010250857583888 1.8321081553109235 0 0 0
39 1 12.732531845686097 3.68861122632284 1.7914747160423106 0 0 0
124 1 0.0067906565888904424 9.063329739512104 5.440646894795875 0 0 0
3481 1 21.6823423498414 3.6194182163214985 0.01011033969933266 0 0 0
43 1 16.288171514850585 3.549399255922935 1.7899373776668206 0 0 0
47 1 19.918382438879426 3.55767476404463 1.823316776188359 0 0 0
51 1 1.7965103507663795 7.207309536024186 1.7718959448284604 0 0 0
32 1 3.614124225643211 5.403442703658223 1.7754982672120094 0 0 0
55 1 5.412392050936223 7.286613930246679 1.8514029324313312 0 0 0
3577 1 21.66573044127962 7.178008981093094 3.633607220261241 0 0 0
59 1 9.075598257198182 7.192710976938376 1.8030195333475614 0 0 0
147 1 3.652531067389169 0.035684293268646916 7.272584349620884 0 0 0
40 1 10.910516621962097 5.462734498723051 1.8468146042673452 0 0 0
63 1 12.705751486392252 7.282193377155096 1.777286897702145 0 0 0
10 1 9.14671829707899 1.8002629835181887 0.04774924811180944 0 0 0
44 1 14.490590320584838 5.502497333841906 1.7913172769048877 0 0 0
67 1 16.297087554553485 7.302715862017288 1.7426134275575986 0 0 0
1015 1 10.826732702723657 10.80369179601395 7.185109699313077 0 0 0
48 1 18.09467396114921 5.408489560440955 1.8221148575791084 0 0 0
71 1 19.962720207750326 7.223996155115126 1.8654025472602913 0 0 0
85 1 10.846921451082078 0.05624650101241396 3.6548652417932463 0 0 0
157 1 0.029190725937375817 3.6216534407841623 7.285462806373005 0 0 0
56 1 3.598254973304068 9.073738156761852 1.8404987496939589 0 0 0
57 1 7.285986667112895 7.168374487349984 0.035668090142974083 0 0 0
60 1 7.281454005212666 9.040399244280897 1.8088687847202343 0 0 0
1017 1 14.43812007300043 10.833390329975911 7.257301318885503 0 0 0
177 1 14.388329926867897 7.236318154428548 7.22607000984282 0 0 0
145 1 0.051677698996539165 0.06542273413114325 7.191663330113287 0 0 0
64 1 10.844621630768392 9.00926158699297 1.7630169519731187 0 0 0
3613 1 21.675518772626805 3.6008546932199605 7.261481024485832 0 0 0
867 1 1.771068238132779 10.839695778234901 1.8400771945572725 0 0 0
68 1 14.476438644601245 9.03626257670244 1.7504966144834968 0 0 0
72 1 18.127722023732186 9.081355063008509 1.85484334522576 0 0 0
74 1 1.8487906810194208 1.8392646962203336 3.6067125592447233 0 0 0
80 1 3.6284665762546804 1.8620558839750991 5.473247518913517 0 0 0
78 1 5.419210320861621 1.8540871908402434 3.6121908196248427 0 0 0
149 1 7.260025257698517 0.032641559443104935 7.202519510064632 0 0 0
84 1 7.269039085253031 1.8538562729633907 5.374977416850529 0 0 0
959 1 19.926212578070665 10.813479009199078 5.478409730517477 0 0 0
82 1 9.086429501616568 1.8773483612829303 3.634743783918158 0 0 0
7 1 5.404422214081324 0.052912401346184176 1.7941814221897514 0 0 0
171 1 3.5508144792280087 7.216203397083589 7.207884778998763 0 0 0
88 1 10.870051397600308 1.8120387365992319 5.430850066731868 0 0 0
86 1 12.722412518002233 1.8475043474441735 3.6167904895083995 0 0 0
955 1 16.23729840055259 10.788871670537462 5.466871980761216 0 0 0
92 1 14.418923055387618 1.8738728139591874 5.410085223137447 0 0 0
90 1 16.259089939678088 1.7757410430877043 3.6449792726891377 0 0 0
96 1 18.08251934643955 1.792511486243565 5.4267496025020865 0 0 0
1011 1 3.591246231640406 10.836327076210825 7.178406833233329 0 0 0
94 1 19.816758155619187 1.8172168207739394 3.598919110450371 0 0 0
175 1 10.869444183334656 7.182615337564742 7.164690955489668 0 0 0
99 1 1.7943470390466252 3.649015933904616 5.395179076093213 0 0 0
98 1 1.8138192912833562 5.391431171817866 3.6044409561067745 0 0 0
101 1 3.638001148253474 3.643713735110181 3.6098455259455773 0 0 0
103 1 5.438503543780464 3.6787599401178688 5.434424528266441 0 0 0
102 1 5.469866939540942 5.507869024232609 3.5608654032922917 0 0 0
105 1 7.213203555849399 3.6514832883277726 3.58959320317276 0 0 0
108 1 7.215499207729466 5.469253991675055 5.41775874920474 0 0 0
107 1 9.016145122717138 3.626766550393396 5.405292369208844 0 0 0
106 1 9.048786829746419 5.385865870254564 3.5521084339059956 0 0 0
112 1 10.812928586922899 5.43876164671161 5.361779008194669 0 0 0
109 1 10.922864516018393 3.6630203123880176 3.6428814532966602 0 0 0
111 1 12.654742765127533 3.637463164497264 5.431878608996779 0 0 0
113 1 14.460360146673967 3.6392098119222522 3.56521862421664 0 0 0
116 1 14.45948408198691 5.43896703563089 5.434316679433224 0 0 0
115 1 16.242180997916535 3.643139579503749 5.431971634802564 0 0 0
117 1 17.994228305522466 3.6348718968331104 3.64949932953165 0 0 0
180 1 19.890091035969576 9.0210419797176 7.218780701913723 0 0 0
75 1 1.8470637814986655 0.050762285058453045 5.456422272518028 0 0 0
119 1 19.914985898667332 3.597839736611054 5.422725557695403 0 0 0
178 1 16.248143158288805 9.059516395315736 7.292140627392091 0 0 0
123 1 1.7896336553637022 7.198233856885518 5.402429767279593 0 0 0
104 1 3.6413421433139948 5.426506332227177 5.388137374038828 0 0 0
125 1 3.6139785156274598 7.252877208665642 3.569863139193877 0 0 0
127 1 5.427695154818641 7.277480241895123 5.391134607060691 0 0 0
129 1 7.241205071034334 7.261609283437721 3.5962596223556687 0 0 0
131 1 9.064268567364415 7.178834925693193 5.342252300706154 0 0 0
133 1 10.848666031576034 7.247887468143955 3.5488146801309197 0 0 0
110 1 12.690139062655831 5.439117661309967 3.635391777001465 0 0 0
135 1 12.632124721905146 7.209442167943684 5.440834542081523 0 0 0
137 1 14.437526819090028 7.245893643161082 3.6612959664577978 0 0 0
139 1 16.278032453229038 7.21812544482847 5.509862909846088 0 0 0
114 1 16.27626782858396 5.48015181162464 3.554640722917259 0 0 0
120 1 18.04920185669847 5.3912180041944024 5.425088953679963 0 0 0
141 1 18.155035905271482 7.201064898489099 3.639655608349365 0 0 0
118 1 19.843264138305415 5.324112856028805 3.6053080414935113 0 0 0
143 1 19.87715193572939 7.203478425113098 5.424402510670672 0 0 0
172 1 5.374085448265267 9.027397140994033 7.211054557470006 0 0 0
45 1 18.084020011527006 3.637097340444506 0.012025517372883245 0 0 0
173 1 7.2566036483203655 7.210271393640778 7.2205653017319955 0 0 0
122 1 1.79247566115095 9.015555143848019 3.6671835440575236 0 0 0
81 1 7.199957153560469 0.08487941673482745 3.5791409361113335 0 0 0
151 1 10.87824746228973 0.02408181687307387 7.263374453512175 0 0 0
128 1 3.5764727722662855 9.006070926141064 5.4022368669682646 0 0 0
170 1 1.7163991897324218 9.021926561884673 7.201111970137176 0 0 0
126 1 5.382574995490281 9.14372315827368 3.629148725060702 0 0 0
132 1 7.255313140579243 9.063036177337466 5.3850227976275375 0 0 0
79 1 5.445800490249292 0.045736158189247714 5.390969190688519 0 0 0
130 1 9.061046347779639 9.037645959348609 3.556260144475752 0 0 0
136 1 10.848748741671296 9.032973865757633 5.34795273181324 0 0 0
160 1 5.446523441981188 5.481915815808571 7.225746191324552 0 0 0
70 1 19.8765603534805 9.026936763238753 0.07435088183180394 0 0 0
134 1 12.624044423681406 9.026838794127324 3.6673831883037535 0 0 0
22 1 19.8892875581699 1.7926419213234668 0.03622865494657583 0 0 0
140 1 14.496756625689946 9.031603957546942 5.4751477056428435 0 0 0
87 1 12.699864295775399 0.043590055031194064 5.420735050123114 0 0 0
138 1 16.30802273769208 8.992354980002816 3.624030373129718 0 0 0
144 1 18.102035220182366 9.018413563254384 5.462486780198662 0 0 0
176 1 12.666067792911685 9.030371100728752 7.18948434326271 0 0 0
142 1 19.94204934090067 9.075908235656456 3.680536996133077 0 0 0
146 1 1.8707777813462416 1.895212078731843 7.260108773904984 0 0 0
148 1 5.476932859139772 1.8496706137569605 7.25141657302689 0 0 0
179 1 18.074297315688238 7.21738612222939 7.231981180652692 0 0 0
150 1 9.06462419452189 1.829023422449048 7.247397619679914 0 0 0
152 1 12.677446427311356 1.870677692183896 7.24814864967229 0 0 0
154 1 16.307025947141025 1.8571813365816892 7.221170849174324 0 0 0
62 1 12.685036637017028 9.068692949144124 0.023621037577039903 0 0 0
156 1 19.936881281523757 1.7827071442838236 7.205066777522764 0 0 0
174 1 9.032067598455152 8.98633138641703 7.174801768563414 0 0 0
158 1 1.7818810244052903 5.460250595460126 7.234344281024211 0 0 0
159 1 3.6012673399751973 3.658362123480365 7.2279139770841905 0 0 0
161 1 7.2140871313289745 3.7000981152281742 7.2451806316796725 0 0 0
162 1 9.03998501882689 5.417922684887588 7.23747407754593 0 0 0
163 1 10.872566439840027 3.6083782940941145 7.19736092308886 0 0 0
164 1 12.667063084741466 5.364697964630956 7.2526597826248205 0 0 0
166 1 16.209173307573497 5.475183662706781 7.281868277876346 0 0 0
165 1 14.49560790555498 3.589322122036328 7.23839743643958 0 0 0
167 1 18.03610870468209 3.5875148711433322 7.243495750626926 0 0 0
168 1 19.83447352619624 5.382545150476548 7.223426005070968 0 0 0
879 1 12.64958522873717 10.800981506586197 1.8736302288578168 0 0 0
77 1 3.6205062369880308 0.02024989088156884 3.552112921879898 0 0 0
1013 1 7.234714067901859 10.803255336311237 7.211548027151186 0 0 0
951 1 12.661105023123827 10.843269858786446 5.421177332609501 0 0 0
5 1 3.613077085153109 0.014536635220686378 0.010015485700519813 0 0 0
23 1 19.84657536435288 0.022045281528690452 1.8020095971801329 0 0 0
89 1 14.447872374274008 0.03791440460250328 3.6702800121013337 0 0 0
18 1 16.2874919786334 1.7676270678924255 0.020239758845434608 0 0 0
46 1 19.885199036960795 5.445552183285274 0.03079155661474431 0 0 0
58 1 9.067626697479975 9.040090858661921 0.005008190818955427 0 0 0
61 1 10.846940525687957 7.215910320217179 0.008092781412621264 0 0 0
21 1 18.07557519644385 0.08133756440089933 0.02424526217883738 0 0 0
54 1 5.45568305877688 9.019556340688203 0.009494472722003877 0 0 0
218 1 1.7950604867107238 1.8002558448974024 10.804000721058767 0 0 0
3748 1 21.652737424687245 1.8150593345136308 16.230860693850893 0 0 0
184 1 3.647189714075735 1.8297844101003402 9.023380687502582 0 0 0
3793 1 21.631967587800304 7.247771554803204 14.517444757208226 0 0 0
222 1 5.437665908501379 1.8186813072385166 10.801936993448006 0 0 0
186 1 7.252462419402776 1.8563369241264094 9.037297504372326 0 0 0
241 1 0.007326301642385117 3.6005891228499682 10.95260459442926 0 0 0
226 1 9.050818677090312 1.8267056901845442 10.829297229992077 0 0 0
188 1 10.885381545965581 1.8412372306879559 9.082130851233204 0 0 0
230 1 12.67114035025117 1.8590871637482096 10.85453276658852 0 0 0
194 1 0.06306542213598862 5.405724290391421 9.145795198722082 0 0 0
190 1 14.519894996481382 1.7930395106156913 9.049791631454482 0 0 0
234 1 16.281583058598667 1.842348499272178 10.813552641518973 0 0 0
3745 1 21.66535991893778 0.052636390093038554 14.408506996722751 0 0 0
192 1 18.052806526434974 1.8085187600102546 9.07465884239878 0 0 0
181 1 1.8546952649591264 0.03966973073547448 9.047974882764231 0 0 0
3796 1 21.68051084128479 9.044284570830259 16.294296083068595 0 0 0
219 1 1.788254599363816 0.06434688403157045 12.667157699390902 0 0 0
238 1 19.929160726144953 1.8232374980825885 10.896060149858116 0 0 0
231 1 12.641752276946798 0.04608343438812113 12.644845319226755 0 0 0
193 1 1.7905452800591477 3.669053726457003 9.087333021102799 0 0 0
242 1 1.8382390283252545 5.423904443804424 10.907274625557916 0 0 0
3700 1 21.668983919015098 5.458825154798517 12.632043341628252 0 0 0
245 1 3.6234900746536596 3.644870834148785 10.832498888263522 0 0 0
196 1 3.6334756006454345 5.445082866749961 9.005978177884948 0 0 0
195 1 5.406922626282773 3.7059334678120113 9.010065805842236 0 0 0
249 1 7.208495397937447 3.6524582509587695 10.817513856303687 0 0 0
197 1 9.092662446022574 3.6664983925782764 9.006651308173709 0 0 0
253 1 10.83583244597814 3.6696614211871514 10.849540754009617 0 0 0
200 1 10.816473215155076 5.473313087144552 9.038325855364612 0 0 0
250 1 9.009617467129035 5.456864164850488 10.860122150745584 0 0 0
199 1 12.646777694515011 3.641369564224563 9.020931324040351 0 0 0
257 1 14.436474181984934 3.5698451659235015 10.881331687673075 0 0 0
201 1 16.29290606555985 3.650183477217747 9.056002191417083 0 0 0
261 1 17.992862189236774 3.5989115611379194 10.922982154373996 0 0 0
360 1 18.06225128163022 8.994637715737506 16.295137876282805 0 0 0
203 1 19.80499084689879 3.598671031388153 9.035041438681334 0 0 0
262 1 19.81798645221076 5.437904848245029 10.861418725448088 0 0 0
205 1 1.8535026670606105 7.216669802411273 9.04407524870978 0 0 0
269 1 3.5622304194293144 7.22567672910812 10.868895884737002 0 0 0
207 1 5.399362764731682 7.22885334053112 8.98119929756207 0 0 0
246 1 5.382675278349373 5.46815376964084 10.849488785011879 0 0 0
198 1 7.203373969613846 5.468494279791856 9.053784385032145 0 0 0
273 1 7.227447922982153 7.24033989668237 10.830485060715265 0 0 0
209 1 9.03056061604611 7.251616402830793 9.028602619161466 0 0 0
277 1 10.810400271480233 7.273706375238749 10.862590695998957 0 0 0
254 1 12.636507416187719 5.459635318681798 10.858817344265217 0 0 0
211 1 12.605186398536636 7.194997157163681 9.108415022188456 0 0 0
202 1 14.426994822746149 5.423318247117711 9.091248227772876 0 0 0
258 1 16.210985107841143 5.419868428454914 10.826343972042018 0 0 0
281 1 14.474829436994822 7.265577975855823 10.919268264497846 0 0 0
213 1 16.237398577403923 7.21951569063272 9.01613011925013 0 0 0
204 1 18.026170908678427 5.460218634108193 9.032824251436974 0 0 0
285 1 18.023271648055516 7.201850313345334 10.849488201939634 0 0 0
215 1 19.899560164531913 7.265033684301501 9.04736784183616 0 0 0
307 1 16.29373925947106 0.027291472907461155 16.262347962588873 0 0 0
266 1 1.8404431098193283 9.02828289532376 10.885314070317774 0 0 0
208 1 3.581437520524701 8.98825671524137 9.023008136930047 0 0 0
265 1 0.05894401269568791 7.273364584357746 10.87101446578111 0 0 0
270 1 5.394014737718055 8.961426072022737 10.801612990939857 0 0 0
210 1 7.190554812244765 9.067409510654521 9.049634293365987 0 0 0
229 1 10.900812126192314 0.0050944940111186336 10.83213191590559 0 0 0
274 1 9.043726407658355 9.033303555494582 10.887520405863715 0 0 0
3676 1 21.68486387627887 1.9062016465425788 12.690565826157494 0 0 0
212 1 10.868221361131875 9.003273044207992 9.03540059635949 0 0 0
278 1 12.646098395315752 9.010357720193685 10.865808199963931 0 0 0
214 1 14.361070724970515 8.99192422778145 9.024083296571709 0 0 0
282 1 16.2801147170446 9.035355965919432 10.798454000565098 0 0 0
4609 1 21.67593584294194 10.793248912895365 14.459447999397696 0 0 0
216 1 18.093250785835252 9.067903479402577 9.040351338220262 0 0 0
182 1 0.029141804443111846 1.754030207747043 9.028675769568826 0 0 0
286 1 19.830367189198494 9.081747139019331 10.904242143646142 0 0 0
3721 1 21.6312519592157 7.247076753521037 10.795368304939355 0 0 0
290 1 1.8462956129177632 1.79036739561787 14.47397508502852 0 0 0
3772 1 21.676900377998695 5.375600155772846 16.37630687792356 0 0 0
224 1 3.6274916613828982 1.7780752110342393 12.557451922391532 0 0 0
228 1 7.241065701834705 1.7987024591506666 12.658112496198038 0 0 0
294 1 5.381956639883839 1.7555431134703132 14.431847641322188 0 0 0
1175 1 19.902239386845608 10.803557033117718 16.387550356780004 0 0 0
232 1 10.772719773931104 1.8149880228184667 12.684445841186163 0 0 0
236 1 14.48050265953605 1.7870678021666355 12.643019541524009 0 0 0
225 1 7.2747270989150055 0.07111775671998033 10.81300561720557 0 0 0
306 1 16.20994638931006 1.7920355628976619 14.458031397825154 0 0 0
1051 1 12.659714132176987 10.807503760128766 9.042946875917224 0 0 0
240 1 18.04318703425092 1.77992246204047 12.702299199326053 0 0 0
1089 1 7.2015523294283925 10.793115297014353 10.842420358718684 0 0 0
3650 1 21.579651923303853 5.457321309158567 9.00632844156033 0 0 0
316 1 0.03533444381512663 5.492169097803967 16.309995390221008 0 0 0
310 1 19.901879315486852 1.797856977413056 14.465398761838085 0 0 0
243 1 1.8582396572169395 3.5530988090797155 12.651903657079725 0 0 0
248 1 3.6067296503704585 5.401134304378249 12.699090063543748 0 0 0
317 1 3.6250672735187544 3.6018328600631873 14.448102428825216 0 0 0
247 1 5.428607640270939 3.614713987145527 12.601403488820575 0 0 0
252 1 7.18752388486538 5.3880737417269655 12.708548299685752 0 0 0
251 1 9.01557340930325 3.6689153741534937 12.686297018523991 0 0 0
255 1 12.640836339429564 3.5819738906320144 12.731008672951667 0 0 0
260 1 14.40561625116218 5.427180048770444 12.68483989303017 0 0 0
259 1 16.257063407744322 3.6063158686797907 12.633552287069119 0 0 0
333 1 18.032893878617738 3.570651986530218 14.484179549640915 0 0 0
263 1 19.82641080345756 3.6661210346338806 12.682568283700093 0 0 0
356 1 14.448421819503501 9.005781573318405 16.28301754713088 0 0 0
267 1 1.8094313394866384 7.179718463744741 12.692738045972153 0 0 0
271 1 5.399945486388882 7.189260827540508 12.588448784865955 0 0 0
275 1 8.99954320569081 7.212870753137417 12.647796073610325 0 0 0
256 1 10.905003023084149 5.449740794116227 12.675696572990688 0 0 0
326 1 12.644742180458024 5.478894670002811 14.505768092840922 0 0 0
279 1 12.670657384675348 7.279283043338188 12.612429475474544 0 0 0
283 1 16.251818552491493 7.1982374741338395 12.693078057800344 0 0 0
353 1 14.485408304234637 7.262846924027071 14.484360881869414 0 0 0
264 1 18.03758182607265 5.392120492879866 12.714174101539081 0 0 0
330 1 16.20933690706503 5.3408147350710715 14.545136720074481 0 0 0
357 1 18.05111324914285 7.17931461001493 14.536864040348949 0 0 0
1045 1 1.8169900550821347 10.808380975246607 9.016553227945499 0 0 0
287 1 19.81376880370688 7.166918145090391 12.679609949299778 0 0 0
334 1 19.855246034805454 5.3648865408065625 14.52432080529939 0 0 0
337 1 0.009034195171364338 7.24867809408157 14.460605731849135 0 0 0
338 1 1.8024044705036473 9.015828729872986 14.371066914663091 0 0 0
272 1 3.600676877480155 9.079594821818045 12.608786445373553 0 0 0
344 1 3.6043100234576717 9.059548820247898 16.224815160807427 0 0 0
276 1 7.161198204622964 9.035988430986658 12.651506516558557 0 0 0
1163 1 9.011179948730755 10.787821705909092 16.307919047433046 0 0 0
280 1 10.839149827211624 9.017941789825107 12.719168981293867 0 0 0
346 1 8.891796180817295 9.018736022015808 14.418283649596273 0 0 0
350 1 12.65890794854215 9.00109283130591 14.465712614964179 0 0 0
354 1 16.277706907070066 9.06114382952847 14.502845459054322 0 0 0
1093 1 10.86148001087999 10.789550902126678 10.930025052070675 0 0 0
284 1 14.46769991363296 9.044759070949796 12.665881793875519 0 0 0
352 1 10.837317750715284 8.977003323080043 16.388138772049192 0 0 0
288 1 18.06379389408597 9.011173958190549 12.681357180032743 0 0 0
1047 1 5.398845372866162 10.796509860141791 8.95651962631166 0 0 0
358 1 19.801715704968377 8.997957453187668 14.49027603342988 0 0 0
1049 1 9.02396275312321 10.804047157599246 9.068249090052863 0 0 0
342 1 5.378828978954364 9.002492223176167 14.448196704654896 0 0 0
296 1 3.628748066287395 1.7760036563382045 16.271050550246308 0 0 0
300 1 7.185276750608336 1.7486778650997863 16.258500287116266 0 0 0
298 1 9.02629119082425 1.801275304916322 14.459009898799636 0 0 0
348 1 7.144734104980092 9.07525147521481 16.20877580703664 0 0 0
302 1 12.64944913022843 1.775718798795305 14.443772035429363 0 0 0
304 1 10.89887130262782 1.8197069927458354 16.226969722229008 0 0 0
308 1 14.470141648479101 1.8124745092834504 16.284000139012193 0 0 0
1167 1 12.61391999848581 10.747549636052074 16.288451274224936 0 0 0
312 1 18.062249252071005 1.7590494690882597 16.271142519020707 0 0 0
359 1 19.922104327731503 7.178153132960826 16.307439913830024 0 0 0
336 1 18.05615956120404 5.352802929277069 16.368501842264827 0 0 0
315 1 1.769102914463758 3.59967368054396 16.247738489321165 0 0 0
314 1 1.825077977598397 5.4491541240245 14.491305011559446 0 0 0
320 1 3.6110111389474273 5.360712036243951 16.28539682783088 0 0 0
321 1 7.1909492841119524 3.567631120502859 14.445973469397874 0 0 0
318 1 5.422361430865222 5.380135043462766 14.48472213102808 0 0 0
319 1 5.446093958217567 3.540251968791627 16.23228534169604 0 0 0
325 1 10.792025306074535 3.6564944471649365 14.469441294655923 0 0 0
323 1 8.990082613702224 3.5462531202158813 16.23908976903602 0 0 0
327 1 12.680667621326807 3.605985306780241 16.239707550964194 0 0 0
329 1 14.460249470473514 3.554139647958675 14.445340868302933 0 0 0
331 1 16.256754545336594 3.5256036546306335 16.28579401703505 0 0 0
335 1 19.819285460312805 3.5588985666096735 16.27493165309721 0 0 0
339 1 1.847490063782888 7.293363830660469 16.340979733695647 0 0 0
341 1 3.6373735644088536 7.226785893634158 14.490178026948817 0 0 0
343 1 5.387290849436773 7.239257852024348 16.275440880580273 0 0 0
345 1 7.141381676308897 7.1958205985178 14.416749239085306 0 0 0
324 1 7.183096471471878 5.42726174746698 16.28066087422919 0 0 0
322 1 8.946329427611506 5.4418489626881685 14.470530257922817 0 0 0
328 1 10.830020001910437 5.393159125203322 16.243924744947687 0 0 0
347 1 9.02466984387694 7.308774557847756 16.26840199915758 0 0 0
349 1 10.76100343270311 7.246302648553894 14.503674535614241 0 0 0
351 1 12.627173072313916 7.18832094629361 16.298849091696557 0 0 0
332 1 14.431822684440965 5.390709793280238 16.311861898663633 0 0 0
355 1 16.23695872993045 7.196012505342299 16.321858924807326 0 0 0
340 1 0.04428453165646356 8.966665345536608 16.245951664550464 0 0 0
3724 1 21.62183828654517 9.024621775693305 12.676266801191106 0 0 0
233 1 14.450059984265126 0.0681680848965506 10.818988990147476 0 0 0
1165 1 10.803892703542346 10.779569414118875 14.522582999720974 0 0 0
3697 1 21.64586068993047 3.702212277065381 10.838376281328722 0 0 0
1155 1 1.8261505079531688 10.81380300831344 16.226609478091707 0 0 0
223 1 5.456479211922788 0.02600283037591704 12.619760410969402 0 0 0
305 1 14.425031980574193 0.03092496333409851 14.474921151450449 0 0 0
1159 1 5.393374859674967 10.84291315410179 16.27348267105252 0 0 0
1157 1 3.5757240659222904 10.84119370804902 14.451472599221526 0 0 0
1153 1 0.04420487457615041 10.840228404246618 14.440424995807524 0 0 0
1097 1 14.498840969648777 10.842546237351469 10.888701038860162 0 0 0
291 1 1.829944540034209 0.02109665246914716 16.358929331138814 0 0 0
301 1 10.857526732744546 0.0006349197624402336 14.441582382961103 0 0 0
362 1 1.863692673669445 1.8016713569454323 18.063618657007233 0 0 0
412 1 0.02180740172413867 9.035364894005776 19.922650869116506 0 0 0
457 1 0.012347555600790372 3.559196058081006 21.666219921657344 0 0 0
368 1 3.635084145693205 1.7496275604731388 19.922715279294344 0 0 0
3985 1 21.64135746101988 7.310232698983 25.2838735243791 0 0 0
366 1 5.43429204391784 1.7471219267791356 18.106614531491832 0 0 0
372 1 7.259562375337009 1.7508820708603297 19.89459170729041 0 0 0
377 1 14.49110112546368 0.016451580212281283 18.10347753744589 0 0 0
370 1 9.043784256086788 1.769012821201664 18.038571039421804 0 0 0
376 1 10.809399645433173 1.7581862171232177 19.960452906784116 0 0 0
374 1 12.68892592432543 1.8064587529832257 18.063909163078343 0 0 0
529 1 0.03834397119905997 7.200065570740033 25.344935322521458 0 0 0
381 1 17.979342488711012 0.01497924955177947 18.061165495420223 0 0 0
3841 1 21.677611283598235 3.5853956414336614 18.039277215597032 0 0 0
380 1 14.46009733860641 1.8768605652428028 19.94111960807456 0 0 0
378 1 16.203455084849146 1.8183385135217673 18.08362367081676 0 0 0
384 1 18.06400265796286 1.7948439256327813 19.858150878636113 0 0 0
3892 1 21.68340374851878 1.8275284542051682 23.4794370474263 0 0 0
382 1 19.848692810654093 1.7589201689133636 18.04586796917537 0 0 0
517 1 0.019043038017468553 3.666046548311649 25.298021705800938 0 0 0
455 1 19.918560867899693 0.015299906592644113 23.45337377832006 0 0 0
387 1 1.7982165762561488 3.5778569324568483 19.864228878449612 0 0 0
515 1 18.096067072071204 0.02913847255193799 25.243187471334746 0 0 0
389 1 3.659991875528983 3.569063413290985 18.04897235187674 0 0 0
391 1 5.463245248973118 3.643072353490077 19.909082660413965 0 0 0
390 1 5.427898684507632 5.376063946507706 18.07157608638026 0 0 0
393 1 7.195432917259598 3.592060806840687 18.07186201127454 0 0 0
395 1 9.1036447168809 3.5446294670213296 19.847066813330063 0 0 0
394 1 9.032505013634864 5.339609081767948 17.989630425996776 0 0 0
397 1 10.867080335310913 3.520167762249041 18.028592984079328 0 0 0
399 1 12.563858904031601 3.5730287491258443 19.894975599086287 0 0 0
401 1 14.44141209445309 3.632360082851591 18.095846256839756 0 0 0
403 1 16.26079421012844 3.5975228193976814 19.861776834374126 0 0 0
405 1 18.059652467873462 3.5768636542587045 18.105396483117065 0 0 0
407 1 19.92451051478413 3.6120354562659784 19.96025487507308 0 0 0
386 1 1.865996568641101 5.44383568770983 18.054760414512362 0 0 0
411 1 1.8028302627674668 7.224477594644384 19.868372866185226 0 0 0
453 1 18.119353431740056 0.027935469376088675 21.648392071908646 0 0 0
392 1 3.578122658199879 5.393085863047763 19.863418831915165 0 0 0
413 1 3.6440216634073272 7.249412310134218 18.11981287902084 0 0 0
415 1 5.510903109784984 7.162568008449326 19.898192982184 0 0 0
396 1 7.290955872098252 5.3461262034024 19.85799061533859 0 0 0
417 1 7.234385260651397 7.1971056478173585 18.034527385586024 0 0 0
419 1 9.028607945461916 7.208700889515892 19.845134326578222 0 0 0
421 1 10.88367369554115 7.189126114092072 18.1173184408018 0 0 0
400 1 10.783655074388665 5.41543456335311 19.85570502550813 0 0 0
398 1 12.609236896536258 5.36978333413474 18.12958789877048 0 0 0
423 1 12.622202442468092 7.173800491309137 19.899191535640185 0 0 0
404 1 14.442072662307009 5.376354916049165 19.850310771676632 0 0 0
402 1 16.255968575175487 5.428948226229919 18.137489145156504 0 0 0
425 1 14.4593971236908 7.196772028998382 18.070712298708393 0 0 0
427 1 16.262741499375778 7.240215060227216 19.869959177730205 0 0 0
408 1 18.10176205161624 5.398666044176999 19.86166431990944 0 0 0
429 1 18.06627909812285 7.16227301073743 18.065068333737706 0 0 0
406 1 19.90697980585426 5.394827879733563 18.132454268901824 0 0 0
431 1 19.934769106246257 7.220573689331099 19.94694168254808 0 0 0
435 1 1.8710891527724909 0.0013070311742274742 23.520499279727616 0 0 0
410 1 1.7983618251028837 9.09155227546967 18.10892665246234 0 0 0
416 1 3.620232182822271 9.00624082087315 19.861958008217126 0 0 0
414 1 5.366620018575889 9.05904880428235 18.094475911314337 0 0 0
420 1 7.220534808899829 9.041815283195445 19.868415133670158 0 0 0
375 1 12.680570034827927 0.0026918549025849985 19.93913537458638 0 0 0
418 1 9.01992519288497 8.999372491746737 18.118553346679015 0 0 0
424 1 10.82561937816565 9.037756345918233 19.852963218150183 0 0 0
422 1 12.594238835635998 9.00068832917887 18.089443076736796 0 0 0
428 1 14.44798845983042 8.984680096558797 19.901552498869535 0 0 0
426 1 16.25253179534557 9.066180206825798 18.078320313928558 0 0 0
432 1 18.063889364031883 9.097732783204082 19.908066949856455 0 0 0
430 1 19.881581856285035 8.960441263064123 18.116132170569475 0 0 0
1239 1 12.64998131492498 10.800434958422843 19.8959880821742 0 0 0
434 1 1.7996640296990225 1.7823050721009126 21.641077473993352 0 0 0
438 1 5.372862338153857 1.810161295419711 21.714856631485887 0 0 0
1375 1 10.864877849533862 10.840271393241986 25.34068519175587 0 0 0
442 1 9.017482913526173 1.7407861366873167 21.721179739752273 0 0 0
446 1 12.652710747539592 1.7560076270679283 21.772712439612096 0 0 0
1233 1 7.1965709443592445 10.842405507192039 18.072773809363646 0 0 0
450 1 16.280812375680902 1.807218113791695 21.69522685564861 0 0 0
504 1 18.109413577806375 9.009749767017784 23.498756195156204 0 0 0
454 1 19.949856105313163 1.8433329840176278 21.686942515839426 0 0 0
1305 1 7.223033259326483 10.795058647310066 21.69891867033071 0 0 0
458 1 1.8290035951139432 5.408975671278453 21.640483362725714 0 0 0
461 1 3.615412533282457 3.6478142093923687 21.673362060340988 0 0 0
462 1 5.463149842978374 5.423167045110304 21.664921190078637 0 0 0
465 1 7.232732841642063 3.5290073502794557 21.68621685001385 0 0 0
466 1 9.016215238602175 5.374858592768362 21.691907308639074 0 0 0
469 1 10.813547365864197 3.6120024438735427 21.741811192237744 0 0 0
473 1 14.461121274360432 3.603583007755199 21.70463010910314 0 0 0
477 1 18.116884431346655 3.6165079711339088 21.64360633303845 0 0 0
540 1 19.87259725800692 9.099281706694192 25.33733982233477 0 0 0
3961 1 21.63529029314669 0.05377101856858496 25.28897856156223 0 0 0
485 1 3.61532474180852 7.20966851359499 21.70663524950941 0 0 0
489 1 7.266594362471884 7.240870932633389 21.72669988699447 0 0 0
493 1 10.830781014277765 7.203871324820461 21.705227524423503 0 0 0
470 1 12.59955178828722 5.442723875847035 21.68342288174042 0 0 0
497 1 14.4668339416477 7.172768613186332 21.749934305121812 0 0 0
474 1 16.233422585627693 5.375898490742923 21.704318836258782 0 0 0
501 1 18.032838638720133 7.177634617396677 21.64421444415193 0 0 0
478 1 19.902067211214117 5.408042121563217 21.76832042526169 0 0 0
1311 1 12.642119919936684 10.778804893411916 23.513480600273162 0 0 0