LAMMPS data file via write_data, version 2 Apr 2025, timestep = 10001, units = metal

3456 atoms
1 atom types

0 37.8 xlo xhi
0 37.8 ylo yhi
0 37.8 zlo zhi

Masses

1 95.94

Atoms # atomic

2 1 1.5460990185338168 1.5736518125808021 1.5795445331015472 0 0 0
4 1 4.762439482562223 1.5815508969234982 1.6094701738379802 0 0 0
51 1 3.1722084587970114 3.1569413921318996 3.1680686475336968 0 0 0
6 1 7.932735069674766 1.5979919689583701 1.6051235289421266 0 0 0
53 1 6.33329632562857 3.148483292656974 3.190049914873527 0 0 0
31 1 9.45502642994803 6.328363180918541 0.012951005189832209 0 0 0
1807 1 18.890601155161683 3.1557190552315664 6.31514701345913 0 0 0
8 1 11.066022117815152 1.5694934384685273 1.5763242490901794 0 0 0
77 1 12.639440607211952 0.004063108566519721 6.337511868542292 0 0 0
76 1 9.45018598224251 0.003438423400559998 6.324174244436387 0 0 0
10 1 14.171366058033735 1.5668646325930262 1.5813912917112303 0 0 0
12 1 17.291746080986773 1.545880207206828 1.6118119013176029 0 0 0
72 1 17.350929676105558 7.856497630908226 4.763016752449502 0 0 0
1789 1 18.842058727749716 6.294477997136087 3.1974195696295107 0 0 0
14 1 1.569515072188043 4.725199852352798 1.5887009291531782 0 0 0
2161 1 18.8875691053203 9.429574219003719 0.01400364985486963 0 0 0
1801 1 18.877886247536985 0.002950161594263534 6.284525626527457 0 0 0
16 1 4.722466018537723 4.760034272175385 1.5857118937441117 0 0 0
18 1 7.849443145586736 4.7252172378868575 1.5954130929967487 0 0 0
3 1 3.146488108241945 0.008998798017202884 0.0011079960785601135 0 0 0
55 1 9.489775819985137 3.199017531073561 3.172557794260023 0 0 0
20 1 10.980585926355333 4.710327388384705 1.619452098357946 0 0 0
57 1 12.576600023977438 3.1526170725636873 3.1670461401590324 0 0 0
17 1 6.308445240073838 3.1121416732240226 0.010333641902178121 0 0 0
22 1 14.1364187237763 4.722388519689197 1.5964433787612118 0 0 0
59 1 15.742982325764775 3.1510864947475103 3.135567091361811 0 0 0
64 1 4.725474109016305 7.887714495922898 4.721776792216976 0 0 0
90 1 15.759713128540223 6.30969231046013 6.347004368769882 0 0 0
24 1 17.276035494982718 4.71749837188515 1.545982603775674 0 0 0
70 1 14.213178597724786 7.867278718098398 4.713051047171795 0 0 0
26 1 1.5703493417841967 7.82985019910969 1.6004090116767697 0 0 0
89 1 12.609923585207126 6.280851902913007 6.278315645604464 0 0 0
63 1 3.143341804637349 6.2947280108185595 3.1708744491693306 0 0 0
28 1 4.706980647426598 7.85985381325868 1.5627803858122282 0 0 0
86 1 3.1358053526228704 6.321057061891967 6.321244034644562 0 0 0
88 1 9.475959452984453 6.324134757562411 6.3003037214826385 0 0 0
65 1 6.303648379888067 6.294465148839813 3.112015224089839 0 0 0
30 1 7.819212342742867 7.9080885095431865 1.56322853443434 0 0 0
62 1 1.5676388192922666 7.893983634954984 4.7684244082876655 0 0 0
67 1 9.440268362796463 6.2537496320234665 3.1584347289018235 0 0 0
69 1 12.617450402167874 6.297501726949162 3.195478647137378 0 0 0
32 1 11.008346075104512 7.863955441441688 1.566219410896953 0 0 0
87 1 6.324424273821575 6.31300409335557 6.245701574994481 0 0 0
34 1 14.142937182113544 7.902840328855704 1.5723911295585584 0 0 0
71 1 15.734584521947196 6.316363348027294 3.152602564586185 0 0 0
36 1 17.319870222990573 7.887279072392171 1.589616531624702 0 0 0
60 1 17.27209745079937 4.7413836231322275 4.724994245803217 0 0 0
38 1 1.529820262740107 1.5232993833843778 4.698610262437576 0 0 0
40 1 4.736590094888478 1.5515422056423307 4.694312300891941 0 0 0
80 1 3.1253435803378458 3.086479106634389 6.263589308710781 0 0 0
25 1 0.013415927450572858 6.278433467285315 0.02105463382931745 0 0 0
42 1 7.919522377014522 1.5983830589990058 4.762367713170018 0 0 0
68 1 11.041384638343448 7.877521001643357 4.7576307366085775 0 0 0
435 1 3.1530265999441194 9.41892433356702 0.002508169941353317 0 0 0
44 1 11.048674505330093 1.5813634921608357 4.744275212195709 0 0 0
83 1 12.63308783159643 3.137718913991158 6.296815835325446 0 0 0
66 1 7.866049574324829 7.888305077421219 4.713040026625197 0 0 0
46 1 14.201085024595304 1.575770467166631 4.7670503980112064 0 0 0
48 1 17.360268484603438 1.6036476589874844 4.755513791926656 0 0 0
84 1 15.801329489405976 3.136955014657948 6.300455420661407 0 0 0
50 1 1.553221533385263 4.7178500659226446 4.735038626412363 0 0 0
52 1 4.708906942944143 4.732720978946618 4.746254040015053 0 0 0
81 1 6.283228254265989 3.1739645462756605 6.342198977255089 0 0 0
54 1 7.909135238198407 4.705551314820022 4.718002494147434 0 0 0
82 1 9.463063443681886 3.153215781179417 6.321601137365546 0 0 0
56 1 11.063374884952491 4.73652925696919 4.7685844449071775 0 0 0
58 1 14.19259879979806 4.729147382026975 4.7451646488794506 0 0 0
508 1 9.45486044873079 9.42082591765657 6.2865892702895625 0 0 0
479 1 15.738342666819769 9.440899208796642 3.2042982531563062 0 0 0
475 1 9.466768797343711 9.446374583539713 3.1187821267232234 0 0 0
15 1 3.1881094927338003 3.1294869644177954 0.03657507740874363 0 0 0
23 1 15.714597218187365 3.1127959510221688 0.0017059186600470405 0 0 0
91 1 1.5847155484451438 1.590719952145951 7.851521564569785 0 0 0
110 1 1.5777767634450839 1.6015752129115006 10.987631517076654 0 0 0
92 1 4.722035674410205 1.5753248504764994 7.864701494507333 0 0 0
112 1 4.741255948135106 1.5964580232541916 11.022774730163327 0 0 0
1873 1 18.84495533131366 0.015338090868387916 12.569715962843778 0 0 0
93 1 7.915687347450713 1.5764434876203077 7.8800175144499445 0 0 0
114 1 7.897984823973186 1.6017788890512106 11.00378445501093 0 0 0
587 1 15.760014251784288 9.431785866726297 12.618673320787419 0 0 0
133 1 0.05260995072637703 6.3028638688899115 9.433972600251737 0 0 0
94 1 11.055215561784456 1.594882455146168 7.908741843334038 0 0 0
116 1 11.043783205793904 1.5344863119450065 11.031031525773733 0 0 0
129 1 12.608382322107854 3.1710883901411027 9.46609059075717 0 0 0
95 1 14.202534585669788 1.5925616226899633 7.906654378158947 0 0 0
118 1 14.174033380306208 1.5800407736717919 11.016207771088899 0 0 0
131 1 15.759383951620823 3.170939982456913 9.474408755901646 0 0 0
579 1 3.142114674579648 9.41970532976501 12.5999375718575 0 0 0
96 1 17.327637526191563 1.5789610844610544 7.911100706200651 0 0 0
120 1 17.299424955998234 1.5881653029717688 11.006090079216332 0 0 0
180 1 17.34043001117921 7.8897420481849965 14.144783962508443 0 0 0
97 1 1.6180104057277491 4.6839326604133715 7.826244009354286 0 0 0
122 1 1.6377754152092776 4.729093588083493 10.990915671185283 0 0 0
98 1 4.76328097918881 4.732852892399284 7.844822326534398 0 0 0
123 1 3.1634212607095273 3.1789704316731666 9.402744107416634 0 0 0
124 1 4.755538012913462 4.709158252768937 10.994570377099885 0 0 0
125 1 6.301775729121059 3.181552854073436 9.40955824473904 0 0 0
99 1 7.882882070553439 4.747390351904068 7.833388819265123 0 0 0
126 1 7.876126993879784 4.746254726122475 11.000735665471554 0 0 0
127 1 9.469171322396864 3.1663826073424186 9.481932400254264 0 0 0
100 1 11.00598723047132 4.715428916074734 7.879465808304154 0 0 0
128 1 11.062983635683555 4.759207309353115 11.020635927420392 0 0 0
141 1 12.609366419661853 6.321708441535826 9.419862153600038 0 0 0
101 1 14.163070585290594 4.737155476162289 7.870978296844245 0 0 0
130 1 14.190698395423132 4.763334436104239 11.038177564690091 0 0 0
102 1 17.30934571150755 4.781133139426683 7.897567731785475 0 0 0
132 1 17.338433157562303 4.699111926355084 11.006813473983385 0 0 0
103 1 1.5768009744156763 7.914346517088477 7.879873554299236 0 0 0
134 1 1.563835311214024 7.895011334114958 11.057433842237332 0 0 0
135 1 3.126031746224658 6.325125611050857 9.444613168373452 0 0 0
104 1 4.747159735159202 7.922177881599953 7.850341977899095 0 0 0
136 1 4.6891894907840355 7.883671715456931 10.986418821993604 0 0 0
137 1 6.313193594931744 6.299755043498197 9.437341199171202 0 0 0
105 1 7.893741615225498 7.8923033893969885 7.868160887347064 0 0 0
138 1 7.841264924468167 7.917455910220953 11.011782433116087 0 0 0
139 1 9.47274327033683 6.304500788469232 9.409080211420852 0 0 0
106 1 11.055085614963437 7.8705158092020495 7.859950858464978 0 0 0
140 1 11.036373057863573 7.922820377068606 10.93369397989216 0 0 0
143 1 15.756089806017775 6.325141300313626 9.478696601454152 0 0 0
107 1 14.163006306114521 7.920479002279559 7.871165292651863 0 0 0
142 1 14.172776665079379 7.90016417074858 11.030056924488571 0 0 0
108 1 17.342850208363483 7.90925677516826 7.900638596067855 0 0 0
144 1 17.356654219881364 7.866823575955194 10.999237113911306 0 0 0
111 1 3.15109901835548 0.029597360625855627 9.416920310774758 0 0 0
146 1 1.600698757023771 1.6130670816172288 14.155667357751165 0 0 0
1849 1 18.865391981178433 3.155496403913789 9.442780452464383 0 0 0
148 1 4.719961076255603 1.5503338346298094 14.137529588523563 0 0 0
159 1 3.1853409667054806 3.172313392647794 12.545038200650373 0 0 0
150 1 7.871837416218166 1.5170756664047829 14.128868037886562 0 0 0
178 1 14.197554634205044 7.860462830801825 14.155164764969035 0 0 0
152 1 11.033759961636832 1.5969235187376574 14.129946064660276 0 0 0
154 1 14.175643666850588 1.5812073031992617 14.195920135960183 0 0 0
156 1 17.32558228877092 1.608565055390619 14.165256241554088 0 0 0
157 1 0.014317011396911179 3.1848631865397135 12.563483032208001 0 0 0
158 1 1.5965173673899353 4.6878188138348245 14.104013918176577 0 0 0
160 1 4.734148245836461 4.691167212067642 14.163485337816876 0 0 0
171 1 3.148317178728086 6.281016550521453 12.58936679808092 0 0 0
161 1 6.341937583008103 3.120812921800933 12.573801560898987 0 0 0
162 1 7.895430033954915 4.729458861886679 14.163383815687185 0 0 0
163 1 9.475467985311502 3.1553921887371543 12.607122366837967 0 0 0
164 1 11.05738192673745 4.733913656433926 14.159474658864967 0 0 0
165 1 12.60254663851726 3.1465341108871576 12.553737371653275 0 0 0
167 1 15.745101352828058 3.1548302256542824 12.622770621787708 0 0 0
166 1 14.16587545293752 4.686047049519034 14.137187951352818 0 0 0
168 1 17.350833980957663 4.740075797535447 14.192493190020071 0 0 0
170 1 1.589050066612514 7.821291452857488 14.20881597478919 0 0 0
172 1 4.71286684618205 7.829837296112406 14.169995496206553 0 0 0
174 1 7.909598064205924 7.883868314490886 14.168607066280668 0 0 0
173 1 6.258191079205867 6.287687239467851 12.593232785994521 0 0 0
175 1 9.461137890773205 6.312075782397503 12.543746597885065 0 0 0
176 1 11.068247974342844 7.881927021225227 14.15271964942326 0 0 0
177 1 12.570407098865022 6.3024164872764725 12.618944207343187 0 0 0
179 1 15.789038900308329 6.288625364906881 12.614205377835935 0 0 0
547 1 9.42111941555011 9.44748833012323 9.443997748577376 0 0 0
585 1 12.6124550570778 9.438764211232655 12.58077396599229 0 0 0
182 1 1.5806036620843262 1.5582645497075533 17.37590042105278 0 0 0
205 1 0.006673624989781492 6.283670861704795 15.711495322442167 0 0 0
621 1 12.658513126830469 9.433476915892419 15.76436296832529 0 0 0
184 1 4.724500325122141 1.5578367765366594 17.326530464629204 0 0 0
195 1 3.1641704057027646 3.1160663867667786 15.704232955387067 0 0 0
186 1 7.875539938886442 1.565933913981422 17.300823656350026 0 0 0
233 1 6.2998375116309555 3.115796519035634 18.924975227875414 0 0 0
199 1 9.450839618866357 3.1676641200931885 15.734184766943669 0 0 0
235 1 9.47022583329269 3.1645053744027476 18.852240405222624 0 0 0
255 1 6.290549709721363 0.01713194485816694 22.052920860511794 0 0 0
193 1 0.0024486955161364676 3.148418247809007 15.72885117482945 0 0 0
188 1 11.005819065570703 1.5647665639758461 17.34510974272426 0 0 0
690 1 15.73720353202966 9.448916673452064 22.0619132720259 0 0 0
190 1 14.205841422010183 1.5548756372418058 17.325239713447733 0 0 0
203 1 15.757928145014047 3.118087995879496 15.752323058586272 0 0 0
1969 1 18.873624073098085 6.319821061847614 18.869734401853272 0 0 0
192 1 17.365737826536293 1.5856824411807098 17.30968084393813 0 0 0
1957 1 18.88254943851673 3.134947370006731 18.909487227222595 0 0 0
194 1 1.5614174767057931 4.734330066744005 17.277455495804748 0 0 0
252 1 17.329361196609458 7.870774541189441 20.472862363654645 0 0 0
196 1 4.7336003472528585 4.7028218821695225 17.32570443818499 0 0 0
207 1 3.1534966363186183 6.277701984749355 15.780517409224721 0 0 0
197 1 6.28394004298383 3.12509057191359 15.684557249692855 0 0 0
198 1 7.895382180442621 4.766470176377831 17.28444555524527 0 0 0
247 1 9.470835381004353 6.276585514422995 18.8559366281249 0 0 0
201 1 12.580068534538151 3.112193811221779 15.73515724659787 0 0 0
200 1 11.04924510749772 4.73318595262179 17.308700173501013 0 0 0
249 1 12.633708629228124 6.294608158797461 18.908751337086198 0 0 0
202 1 14.160647399576048 4.714593700413666 17.326711403546422 0 0 0
204 1 17.340810031699498 4.728013574070877 17.304986595422317 0 0 0
206 1 1.592680579062792 7.8393918162317835 17.340957351345423 0 0 0
208 1 4.7131927157347 7.856762834003166 17.345926820642912 0 0 0
185 1 6.300441460828095 0.0038027487134069536 15.717318514770477 0 0 0
209 1 6.281037588252203 6.298662857312609 15.776707230206224 0 0 0
245 1 6.32621190198216 6.301152944367501 18.908304848117854 0 0 0
210 1 7.902359738760593 7.8954781295308365 17.323932414747762 0 0 0
211 1 9.455933326954188 6.283618272103368 15.736908836326142 0 0 0
651 1 3.160702910278697 9.448117672377073 18.87217203824396 0 0 0
213 1 12.63172170512078 6.278621170021644 15.783892154147969 0 0 0
212 1 11.010583308827394 7.865437790783985 17.29283532026624 0 0 0
689 1 12.582344337462079 9.418431727299406 22.08275859271562 0 0 0
251 1 15.733051185639523 6.289115345820798 18.90211638204135 0 0 0
215 1 15.744685386719015 6.299470345282677 15.745295346780635 0 0 0
214 1 14.157714524733672 7.864324274097374 17.312760170980564 0 0 0
615 1 3.157459249430466 9.436981992509217 15.724819428044725 0 0 0
229 1 0.013364237587997648 3.174640610723648 18.91104459205685 0 0 0
216 1 17.33252079764505 7.852361135610133 17.34221164083063 0 0 0
218 1 1.5673850200030484 1.5562916629031445 20.44521196925814 0 0 0
259 1 0.010622915808802702 3.1770488127711647 22.040484767334696 0 0 0
220 1 4.7011872488252315 1.5963588803605937 20.510324508176634 0 0 0
260 1 3.17081190086711 3.1321167324459123 22.0763942641155 0 0 0
222 1 7.876590819991287 1.5389002709719604 20.49225658973291 0 0 0
262 1 9.44340657954054 3.100399596678845 22.03751601703904 0 0 0
244 1 4.748387974960431 7.860474975670265 20.460677609315287 0 0 0
224 1 11.039115569245396 1.565802896087702 20.477207183266998 0 0 0
237 1 12.633395390177977 3.1291084268581866 18.898309342749954 0 0 0
239 1 15.739025811832532 3.1271577812291964 18.91144511371846 0 0 0
264 1 15.812288468921762 3.1732500833719643 22.049609326114687 0 0 0
226 1 14.186584389598087 1.5758530432692885 20.47259846452679 0 0 0
267 1 6.269289633786888 6.252555665821558 22.056563513431293 0 0 0
228 1 17.38055263226512 1.5531510800166997 20.45628078746475 0 0 0
246 1 7.858286170633278 7.86366845518309 20.462390274744966 0 0 0
230 1 1.6007021822314957 4.7341221439529 20.460359474174325 0 0 0
250 1 14.18094534806267 7.899661218982251 20.48888160007647 0 0 0
231 1 3.122705827598692 3.140485643840851 18.853929178128205 0 0 0
232 1 4.703067975537479 4.721854184088706 20.484735765204135 0 0 0
266 1 3.1156672012230695 6.287763556814688 22.06766805491919 0 0 0
234 1 7.931314849079976 4.716181741587094 20.485374874341876 0 0 0
261 1 6.30226008059698 3.1298142273596072 22.039482389019366 0 0 0
268 1 9.454794849726884 6.311375829102753 22.0639347174701 0 0 0
263 1 12.604662020162172 3.12784953402601 22.024206205013662 0 0 0
269 1 12.562165202059106 6.293697091563082 22.011202461630344 0 0 0
236 1 11.061137726049827 4.758258552060625 20.434890968769142 0 0 0
238 1 14.183287220333149 4.708797462525219 20.479538451205833 0 0 0
270 1 15.719449472830059 6.308073735903904 22.033519603082404 0 0 0
240 1 17.34536200690502 4.731053048769959 20.47313629916083 0 0 0
243 1 3.158615744858259 6.264524781967999 18.95996518857779 0 0 0
242 1 1.5796160705006972 7.904940385484881 20.480310994579963 0 0 0
248 1 11.00893464400436 7.886969089053593 20.452567758015714 0 0 0
225 1 12.589900906949099 0.007202784278810291 18.886107058255185 0 0 0
221 1 6.298452305807618 0.026866513342173638 18.915859743987795 0 0 0
613 1 0.0035171000031665586 9.428018373280949 15.737231468296015 0 0 0
2413 1 18.873307951018784 9.436837055916795 22.03481266957647 0 0 0
617 1 6.350122831768019 9.43825983529966 15.730468252504613 0 0 0
655 1 9.444952042767914 9.418224365238393 18.887117483403433 0 0 0
623 1 15.814216273853118 9.438734900858648 15.755530361685114 0 0 0
619 1 9.481281704405246 9.439607291828198 15.727765130365922 0 0 0
657 1 12.589561951198338 9.439956128491064 18.889203315419778 0 0 0
1981 1 18.887652581463243 0.03018245816539253 22.036071080490057 0 0 0
223 1 9.453526628477704 0.03661270691320918 18.900144387302173 0 0 0
687 1 6.309163708892453 9.43413261432164 22.05828856721301 0 0 0
686 1 3.1764614189319076 9.432453861431096 22.03054930617881 0 0 0
653 1 6.3269601657229355 9.447751786602602 18.918930661984305 0 0 0
183 1 3.146645327226352 0.006445380256295152 15.720842918118755 0 0 0
271 1 1.6038175576136116 1.588010592714921 23.63094227940488 0 0 0
272 1 4.749375204216384 1.5385117343038954 23.640825110770603 0 0 0
333 1 12.581255848794427 0.036114292991424116 28.3489897443399 0 0 0
273 1 7.846008587486889 1.5624030605187682 23.624230821329384 0 0 0
305 1 6.323232969602061 3.1779764009951137 25.15425427265391 0 0 0
2077 1 18.887874801958066 6.276254555060233 28.36401671532301 0 0 0
274 1 11.013915809346003 1.5495719856841383 23.611174140876656 0 0 0
309 1 12.57814989852283 3.1607656884040853 25.170545345992675 0 0 0
275 1 14.151888582899161 1.5274989135355823 23.599236238336918 0 0 0
311 1 15.788393951086995 3.1922750364442094 25.206182387617172 0 0 0
276 1 17.309578819039814 1.6258587027292457 23.64545447045207 0 0 0
2029 1 18.875889166061313 3.1376727033839287 25.216083103451467 0 0 0
277 1 1.5512981179985041 4.7465944239984 23.636205308038146 0 0 0
303 1 3.144829125896625 3.178102434844822 25.209704979175036 0 0 0
278 1 4.75362337280284 4.710871268913708 23.652425336325717 0 0 0
315 1 3.163360139044367 6.293769577835994 25.218962067429263 0 0 0
279 1 7.865157426356387 4.74483716621211 23.61391790118187 0 0 0
307 1 9.466742919185656 3.125603731287126 25.17617320599726 0 0 0
319 1 9.442453435311274 6.29362651670825 25.221848202880672 0 0 0
280 1 11.005833970627009 4.6920728477088 23.605516731684393 0 0 0
281 1 14.147425564118217 4.681924182713845 23.619673166652394 0 0 0
358 1 14.196869846250605 7.87772372531204 29.94090853948253 0 0 0
282 1 17.298811983734463 4.749462606309167 23.604147356379475 0 0 0
322 1 14.153241203511003 7.899054466806282 26.752208704718594 0 0 0
283 1 1.5749776744658694 7.865588891039933 23.662694015254704 0 0 0
284 1 4.707266034286561 7.902333995804298 23.595739080645348 0 0 0
317 1 6.299800118797904 6.342153379644925 25.237065382837386 0 0 0
285 1 7.875459526962961 7.882971851964821 23.63529294477229 0 0 0
316 1 4.735456801359248 7.900083823384561 26.767474692592153 0 0 0
2041 1 18.893554312184285 6.3015274630948115 25.20277366301245 0 0 0
286 1 11.00079524969591 7.837941451703507 23.623000077873375 0 0 0
321 1 12.566198726202702 6.29368838027663 25.189794539115493 0 0 0
323 1 15.732563164901835 6.3366970649671535 25.198124294286696 0 0 0
287 1 14.171765361623002 7.890493326428027 23.61518573235653 0 0 0
288 1 17.288955589900688 7.858017226057911 23.612840814033895 0 0 0
324 1 17.32232271276106 7.899408933837189 26.7628207037252 0 0 0
290 1 1.6117925255494814 1.5619520994669605 26.797428298971184 0 0 0
326 1 1.5585148323080087 1.518677877198059 29.904712249983668 0 0 0
292 1 4.747729315435278 1.6067715539545555 26.78207155075703 0 0 0
328 1 4.729786748669171 1.5616322713838782 29.948604916869208 0 0 0
339 1 3.1890306094082876 3.1118822754175897 28.386462660851265 0 0 0
294 1 7.879935014549977 1.5913025165857926 26.777566371903898 0 0 0
330 1 7.860095367369836 1.5662076642535783 29.972048891251987 0 0 0
341 1 6.312488206751794 3.164112717860724 28.369259522762587 0 0 0
360 1 17.318707757380608 7.846539792548915 29.930887614155576 0 0 0
349 1 0.009410178082188385 6.292725102582835 28.354948440747016 0 0 0
296 1 10.988271702434728 1.5741421237917224 26.743226436581935 0 0 0
332 1 10.984363318747478 1.5908385836818641 29.974955007430538 0 0 0
345 1 12.58151262694459 3.1545903159514044 28.34499863960822 0 0 0
318 1 7.906188701773956 7.88369532121441 26.78981044177401 0 0 0
298 1 14.142573893150644 1.6168991454403283 26.780667185578544 0 0 0
334 1 14.139395818239338 1.5406535909513819 29.926440044577785 0 0 0
354 1 7.8655208487194 7.838964186044863 29.910673796093892 0 0 0
300 1 17.309194215416838 1.6191201543065692 26.807158425122363 0 0 0
336 1 17.307605034554292 1.601698114871643 29.94950673321911 0 0 0
352 1 4.738130907724939 7.869073276312613 29.93526636595901 0 0 0
302 1 1.5728247112895961 4.742318098757815 26.80715364477194 0 0 0
338 1 1.5643945404211224 4.669777549777339 29.94010056902671 0 0 0
359 1 15.717576182969541 6.307237237329376 28.294226205883685 0 0 0
304 1 4.735093292955513 4.704839372773732 26.799283409499015 0 0 0
340 1 4.730584772503651 4.691406043750044 29.923477674344202 0 0 0
306 1 7.871092672155412 4.720093906619847 26.744476637113305 0 0 0
342 1 7.865434502542542 4.741550920128714 29.89390660948631 0 0 0
353 1 6.306487018190547 6.274864768530422 28.29646601072791 0 0 0
343 1 9.427025093885026 3.1515586806648908 28.32719577310682 0 0 0
355 1 9.503276677510376 6.334015753066474 28.33466612518544 0 0 0
357 1 12.587871763954775 6.34344730762031 28.343239557551787 0 0 0
308 1 11.004632363479148 4.74016888369964 26.76372796803834 0 0 0
344 1 11.007359453551484 4.723961016985157 29.904299070160885 0 0 0
347 1 15.687393034684638 3.2004298652037826 28.359064118604692 0 0 0
310 1 14.131008037567467 4.72627448880099 26.73327797902628 0 0 0
346 1 14.14689177661103 4.761104496713098 29.894633339223567 0 0 0
356 1 11.027090817809864 7.873442525377993 29.948758545594213 0 0 0
312 1 17.31603093167055 4.74131864728874 26.764574317739502 0 0 0
348 1 17.29817763191766 4.739329777948563 29.943690248442053 0 0 0
320 1 11.027064652936803 7.882517864713137 26.756360267934866 0 0 0
314 1 1.5437732861800186 7.883621522382167 26.793652774617385 0 0 0
350 1 1.5267265367257075 7.87828352178172 29.909811185381496 0 0 0
351 1 3.113262962804544 6.2769407142537625 28.37452620162899 0 0 0
2065 1 18.86509786309459 3.153454554622912 28.374574144308788 0 0 0
301 1 0.01565336159262373 3.155656529446138 25.202793589689733 0 0 0
293 1 6.322597915916327 0.004284417068479061 25.207693023608094 0 0 0
337 1 0.021331274230888438 3.199517852401153 28.34092120897679 0 0 0
2053 1 18.881694291075434 0.0318174754676032 28.355976596373115 0 0 0
767 1 15.752959900454817 9.446828867460558 28.332371043253108 0 0 0
761 1 6.303025537251541 9.418329368304716 28.34690015213611 0 0 0
335 1 15.711666534725234 0.027411458389479403 28.343560621321284 0 0 0
289 1 0.029927216364876677 0.012740692030676076 25.247917193811052 0 0 0
297 1 12.59141218826867 0.007089997323672599 25.215568684824195 0 0 0
331 1 9.436690190431104 0.009751257012203923 28.35662513157183 0 0 0
2017 1 18.868507697354435 0.04679609539144373 25.20124554140241 0 0 0
759 1 3.1429099655071235 9.44311121688178 28.385586319560034 0 0 0
362 1 1.5836443115893144 1.6044538236336352 33.0843577427638 0 0 0
407 1 15.737882544166721 0.0033105593436650134 34.65193131070479 0 0 0
801 1 12.61981116536123 9.428094848450565 31.476247009279497 0 0 0
364 1 4.740389272104863 1.568207813253041 33.08933813010349 0 0 0
375 1 3.1482310946071297 3.1349255394617193 31.498902366515896 0 0 0
366 1 7.872750072810476 1.5726582935211564 33.093485302729725 0 0 0
377 1 6.293216361627118 3.1736309786240255 31.521368159860707 0 0 0
379 1 9.426873983456204 3.156955032170374 31.5187643415662 0 0 0
368 1 10.974996303514017 1.5109188611376771 33.05509158559986 0 0 0
381 1 12.541921211683453 3.1398203762323753 31.524133757179598 0 0 0
432 1 17.285474459699707 7.866012865652479 36.26267417126082 0 0 0
370 1 14.166620455616886 1.5537442420405232 33.11268813345209 0 0 0
21 1 12.564829936743443 3.196235857793362 37.78595890198425 0 0 -1
372 1 17.270503893772283 1.5823271446492697 33.080698972602086 0 0 0
374 1 1.582533595511626 4.73179788737882 33.07396926674607 0 0 0
376 1 4.745118092847472 4.722698697827752 33.06315602063812 0 0 0
387 1 3.1427289943960113 6.263111869122383 31.483528667281917 0 0 0
378 1 7.864273530407271 4.701918149983751 33.106402659433456 0 0 0
391 1 9.401407851654206 6.284115168712623 31.471279970910185 0 0 0
380 1 11.000980391779894 4.739479066516114 33.035752061859576 0 0 0
383 1 15.720666209989348 3.1785515555768447 31.500058638427706 0 0 0
382 1 14.140987438695236 4.702410304380818 33.04639180944261 0 0 0
384 1 17.323288536755737 4.713998857325104 33.06502348008556 0 0 0
386 1 1.5526269163619184 7.859903498371036 33.07232578184399 0 0 0
388 1 4.739326454586273 7.852252620994524 33.05348849475768 0 0 0
2125 1 18.88864071827535 0.026397185114776088 34.66567854895524 0 0 0
389 1 6.279351426218928 6.295965145649283 31.518162697316217 0 0 0
390 1 7.8698173961662965 7.8715464133340065 33.107250523245774 0 0 0
421 1 6.099434445161478e-05 6.291050326396335 34.66754794379582 0 0 0
393 1 12.584104046282116 6.292638468772811 31.512877114687342 0 0 0
392 1 11.012804885922748 7.8464918054998565 33.05883632691889 0 0 0
395 1 15.72532348791656 6.282162744563429 31.519235092632215 0 0 0
394 1 14.190945445315563 7.899228106137806 33.07274088786724 0 0 0
430 1 14.151090897971587 7.856536044659933 36.18815602204568 0 0 0
396 1 17.285426650536568 7.856838127355584 33.06221207444157 0 0 0
398 1 1.56674102413483 1.5926292459830313 36.18291175159624 0 0 0
2149 1 18.891192685768168 6.328689409267671 34.6806886853813 0 0 0
400 1 4.7471030831848795 1.5779254057408816 36.284721073197844 0 0 0
409 1 5.689985324077183e-05 3.1794238942133446 34.61475736345922 0 0 0
402 1 7.882444073644716 1.5507936960710726 36.23470502541197 0 0 0
797 1 6.262451636538395 9.399633803295355 31.479456228658833 0 0 0
415 1 9.47649051371222 3.1304604411236583 34.66095520736016 0 0 0
428 1 10.985790743249831 7.909293997033533 36.236364831938374 0 0 0
404 1 11.077889103834378 1.572325140655895 36.23030169464846 0 0 0
406 1 14.188627261633139 1.4852750899416851 36.230272806632456 0 0 0
1753 1 18.888455797778764 6.306535292084858 37.78596711667118 0 0 -1
2101 1 18.854442329711986 3.141514923777513 31.488219340124072 0 0 0
408 1 17.326658559479185 1.5597970845509281 36.2530151920669 0 0 0
1741 1 18.832147445076586 3.1607946261733733 37.7727213173601 0 0 -1
410 1 1.5887957536121455 4.70031342069808 36.177001190770746 0 0 0
7 1 9.482248330010417 0.020710802638757506 37.784063001027924 0 0 -1
411 1 3.1812018288607153 3.1349593386824344 34.63818524886382 0 0 0
412 1 4.686187142871067 4.710167203193162 36.23013332886259 0 0 0
413 1 6.3145092287513265 3.175665517354953 34.68766385475748 0 0 0
414 1 7.8820556624687965 4.7100225611238224 36.23468731780099 0 0 0
427 1 9.421989634736397 6.282871054380282 34.62027614060044 0 0 0
416 1 10.981664566735937 4.712717445295663 36.24216906255519 0 0 0
417 1 12.554179463158869 3.104323525766195 34.67427327458516 0 0 0
429 1 12.544142757606775 6.296578363333876 34.66743891405174 0 0 0
431 1 15.72868005519543 6.328730014632701 34.64470405055898 0 0 0
418 1 14.1655213202679 4.725583737075348 36.183416382654336 0 0 0
419 1 15.69504044457082 3.1315680901718346 34.66955054619105 0 0 0
420 1 17.320251521410743 4.687935426675506 36.18458237723013 0 0 0
422 1 1.5893033405920918 7.8620042966907935 36.249222750284964 0 0 0
423 1 3.178562803469264 6.308574702285263 34.62586939101812 0 0 0
424 1 4.75357752271711 7.849209902103167 36.223041853045665 0 0 0
2557 1 18.86335020457256 9.443163150629955 34.65629736887633 0 0 0
425 1 6.2684521765579095 6.310533714603794 34.65042393915018 0 0 0
426 1 7.852840055597459 7.891931924548885 36.216735963429194 0 0 0
839 1 15.762470879167198 9.4344694709406 34.62236884283578 0 0 0
799 1 9.447327551094004 9.41405871889457 31.448277546974634 0 0 0
795 1 3.1371122426677673 9.40602701370517 31.483894720927807 0 0 0
835 1 9.431417153312617 9.445193644554056 34.630486536293674 0 0 0
365 1 6.292919858171381 0.03562625391328929 31.483432363549547 0 0 0
831 1 3.1437386834966636 9.433895811989679 34.65349014796716 0 0 0
35 1 15.711382816985873 6.2831913262300025 37.786468385218335 0 0 -1
29 1 6.263452298379666 6.281556731561551 37.79674672094779 0 0 -1
373 1 0.048377558143784596 3.1430284860021644 31.51332765521383 0 0 0
2113 1 18.88017148665286 6.277997778575738 31.496016499404416 0 0 0
27 1 3.153289137260341 6.288100189430405 37.77545757892753 0 0 -1
837 1 12.621094375216815 9.444497794411776 34.62959840679825 0 0 0
19 1 9.447376683657753 3.149350086019652 37.790507368414985 0 0 -1
33 1 12.583817380107526 6.358296629008005 37.79365652222945 0 0 -1
434 1 1.5272990716371544 11.027116954501702 1.55949811823193 0 0 0
436 1 4.714215155916177 11.01583005012711 1.6023543182003948 0 0 0
461 1 6.279048001027749 15.730424698806697 0.031106780215186577 0 0 0
438 1 7.8540131059808225 11.022999215967555 1.572564131682359 0 0 0
485 1 6.256723621712184 12.643768970066143 3.1561797630979744 0 0 0
509 1 12.605132361930513 9.468740766899915 6.2699168108231245 0 0 0
875 1 15.76416581842968 18.87680637485194 0.02890867056512138 0 0 0
440 1 11.04151627607472 11.049062640876043 1.57497863388614 0 0 0
489 1 12.602019490085198 12.608249990782598 3.138110784751665 0 0 0
498 1 7.851099944709228 17.33648882012617 4.737093773740317 0 0 0
510 1 15.732293472925326 9.473467881544018 6.341654510776464 0 0 0
442 1 14.162653314298533 11.05808763142797 1.571053929246052 0 0 0
507 1 6.300247800357705 9.490369660521969 6.279401931567464 0 0 0
444 1 17.351846014730455 11.023718179313036 1.6277567211145183 0 0 0
446 1 1.5698737330791896 14.179129309134815 1.5629712125293287 0 0 0
483 1 3.1573831788092237 12.610488464550041 3.0974355730376533 0 0 0
448 1 4.689242524227891 14.173328331796037 1.5357451299356044 0 0 0
505 1 0.0020107632361572314 9.472282946153321 6.301631380467827 0 0 0